FoamFile
{
    version     2.0;
    format      ascii;
    class       polyBoundaryMesh;
    location    "constant/polyMesh";
    object      boundary;
}

4         
(
    Airfoil
    {
        type wall;
        nFaces 518;
        startFace 30562;
    }
    Back
    {
        type empty;
        nFaces 15540;
        startFace 31080;
    }
    Front
    {
        type empty;
        nFaces 15540;
        startFace 46620;
    }
    oversetPatch
    {
        type overset;
        nFaces 518;
        startFace 62160;
    }
)
