FoamFile
{
    version     2.0;
    format      ascii;
    class       polyBoundaryMesh;
    location    "constant/polyMesh";
    object      boundary;
}

4         
(
    Airfoil
    {
        type wall;
        nFaces 528;
        startFace 31152;
    }
    Back
    {
        type empty;
        nFaces 15840;
        startFace 31680;
    }
    Front
    {
        type empty;
        nFaces 15840;
        startFace 47520;
    }
    oversetPatch
    {
        type overset;
        nFaces 528;
        startFace 63360;
    }
)
