FoamFile
{
    version     2.0;
    format      ascii;
    class       polyBoundaryMesh;
    location    "constant/polyMesh";
    object      boundary;
}

4         
(
    Airfoil
    {
        type wall;
        nFaces 516;
        startFace 30444;
    }
    Back
    {
        type empty;
        nFaces 15480;
        startFace 30960;
    }
    Front
    {
        type empty;
        nFaces 15480;
        startFace 46440;
    }
    oversetPatch
    {
        type overset;
        nFaces 516;
        startFace 61920;
    }
)
