FoamFile
{
    version     2.0;
    format      ascii;
    class       polyBoundaryMesh;
    location    "constant/polyMesh";
    object      boundary;
}

4         
(
    Airfoil
    {
        type wall;
        nFaces 510;
        startFace 30090;
    }
    Back
    {
        type empty;
        nFaces 15300;
        startFace 30600;
    }
    Front
    {
        type empty;
        nFaces 15300;
        startFace 45900;
    }
    oversetPatch
    {
        type overset;
        nFaces 510;
        startFace 61200;
    }
)
