/*--------------------------------*- C++ -*----------------------------------*\
| =========                 |                                                 |
| \\      /  F ield         | OpenFOAM: The Open Source CFD Toolbox           |
|  \\    /   O peration     | Version:  v2112                                 |
|   \\  /    A nd           | Website:  www.openfoam.com                      |
|    \\/     M anipulation  |                                                 |
\*---------------------------------------------------------------------------*/
FoamFile
{
    version     2.0;
    format      ascii;
    class       volScalarField;
    object      omega;
}
// * * * * * * * * * * * * * * * * * * * * * * * * * * * * * * * * * * * * * //

#include "flowState"
dimensions      [0 0 -1 0 0 0 0];

internalField   uniform $omega;

boundaryField
{
    "(Outlet|Inlet|Top)"
    {
        type            freestream;
        freestreamValue $internalField;
	value		$internalField;
    }

    Bottom //"(Outlet|Inlet|Top|Bottom)"
    {
        type            zeroGradient;
        //freestreamValue $internalField;
    }

    "Airfoil.*"
    {
        type            fixedValue; //omegaWallFunction;
        value           uniform $omega_wall;
    }

    "(Front|Back)"
    {
        type            empty;
    }

    oversetPatch
    {
        type            overset;
    }
}
