/*--------------------------------*- C++ -*----------------------------------*\
| =========                 |                                                 |
| \\      /  F ield         | OpenFOAM: The Open Source CFD Toolbox           |
|  \\    /   O peration     | Version:  v1912                                 |
|   \\  /    A nd           | Website:  www.openfoam.com                      |
|    \\/     M anipulation  |                                                 |
\*---------------------------------------------------------------------------*/
FoamFile
{
    version     2.0;
    format      ascii;
    class       volScalarField;
    object      nuTilda;
}
// * * * * * * * * * * * * * * * * * * * * * * * * * * * * * * * * * * * * * //

#include "flowState"

dimensions      [0 2 -1 0 0 0 0];

internalField   uniform #calc "4.0*$nuT"; //0.003; //0.04; //0.003;

boundaryField
{
   "(Inlet|Outlet|Top)"
    {
        type            freestream;
	//value		$internalField;
        freestreamValue $internalField;
    }

    "(Bottom|Airfoil.*)"
    {
        type            fixedValue; //zeroGradient;
        value           uniform 0; //$internalField;
    }

    "(Front|Back)" //frontAndBack
    {
        type            empty;
    }

    oversetPatch
    {
        type            overset;
    }
}

// ************************************************************************* //
