FoamFile
{
    version     2.0;
    format      ascii;
    class       polyBoundaryMesh;
    location    "constant/polyMesh";
    object      boundary;
}

4         
(
    Airfoil
    {
        type wall;
        nFaces 513;
        startFace 30267;
    }
    Back
    {
        type empty;
        nFaces 15390;
        startFace 30780;
    }
    Front
    {
        type empty;
        nFaces 15390;
        startFace 46170;
    }
    oversetPatch
    {
        type overset;
        nFaces 513;
        startFace 61560;
    }
)
