FoamFile
{
    version     2.0;
    format      ascii;
    class       polyBoundaryMesh;
    location    "constant/polyMesh";
    object      boundary;
}

4         
(
    Airfoil
    {
        type wall;
        nFaces 525;
        startFace 30975;
    }
    Back
    {
        type empty;
        nFaces 15750;
        startFace 31500;
    }
    Front
    {
        type empty;
        nFaces 15750;
        startFace 47250;
    }
    oversetPatch
    {
        type overset;
        nFaces 525;
        startFace 63000;
    }
)
