FoamFile
{
    version     2.0;
    format      ascii;
    class       polyBoundaryMesh;
    location    "constant/polyMesh";
    object      boundary;
}

4         
(
    Airfoil
    {
        type wall;
        nFaces 533;
        startFace 31447;
    }
    Back
    {
        type empty;
        nFaces 15990;
        startFace 31980;
    }
    Front
    {
        type empty;
        nFaces 15990;
        startFace 47970;
    }
    oversetPatch
    {
        type overset;
        nFaces 533;
        startFace 63960;
    }
)
