FoamFile
{
    version     2.0;
    format      ascii;
    class       polyBoundaryMesh;
    location    "constant/polyMesh";
    object      boundary;
}

4         
(
    Airfoil
    {
        type wall;
        nFaces 514;
        startFace 30326;
    }
    Back
    {
        type empty;
        nFaces 15420;
        startFace 30840;
    }
    Front
    {
        type empty;
        nFaces 15420;
        startFace 46260;
    }
    oversetPatch
    {
        type overset;
        nFaces 514;
        startFace 61680;
    }
)
